ITEM: TIMESTEP
10000000
ITEM: NUMBER OF ATOMS
6086
ITEM: BOX BOUNDS pp pp pp
-29.5011 29.5011
-29.5011 29.5011
-29.5011 29.5011
ITEM: ATOMS id mol type x y z 
1353 7 3 -3.13976 -4.62325 -15.1593 
1349 7 3 -3.38083 -2.29206 -15.2384 
1354 7 3 -3.33951 -4.07008 -15.293 
1345 7 3 -2.83578 -1.52357 -15.3839 
1346 7 3 -2.65367 -0.418642 -16.0256 
1347 7 3 -2.51837 -0.929792 -16.5915 
1348 7 2 -2.55575 -1.05618 -15.8036 
1344 7 2 -2.89791 -1.74093 -16.2233 
1335 7 5 -1.60533 -0.49071 -15.3334 
1306 7 3 -1.12568 -0.206914 -15.1746 
4029 28 3 -3.47922 -8.6233 -13.2322 
4033 28 3 -1.25 -10.2676 -13.2662 
4034 28 2 -0.482175 -10.3802 -13.248 
701 4 1 -7.62684 -6.54068 -13.0572 
1352 7 2 -3.70784 -6.42302 -14.4793 
322 2 3 -2.82116 -6.8003 -13.8072 
321 2 2 -4.1903 -6.64754 -14.5119 
320 2 2 -4.18708 -8.09407 -13.9586 
703 4 3 -7.76029 -5.25173 -13.5405 
704 4 3 -7.8971 -5.52069 -13.7623 
702 4 2 -7.27613 -5.67924 -13.2401 
328 2 3 -5.78507 -4.82172 -12.7693 
325 2 2 -5.06269 -6.21861 -13.4055 
1351 7 3 -4.02877 -4.8051 -14.4536 
324 2 5 -4.16005 -6.31778 -12.9973 
323 2 2 -4.13476 -6.23346 -13.0072 
319 2 3 -3.72528 -6.28818 -13.7902 
1357 7 2 -3.22852 -4.59919 -14.0056 
707 4 2 -7.45403 -3.93882 -13.37 
705 4 3 -7.55231 -4.09972 -14.55 
706 4 3 -7.59112 -3.71338 -14.1738 
1358 7 3 -4.81582 -3.66305 -13.1673 
1360 7 3 -5.47759 -3.71348 -12.7069 
1359 7 2 -5.02778 -3.58268 -12.7016 
1356 7 2 -3.9692 -3.20927 -14.3164 
1350 7 3 -4.02153 -3.60426 -14.4012 
1355 7 3 -3.48432 -3.94355 -14.7233 
1756 10 2 -0.737485 -2.54742 -14.5415 
1393 7 3 -9.17197 -0.00945944 -12.7044 
1791 10 3 -2.57434 -0.964164 -12.9114 
1343 7 2 -3.89476 -0.705095 -14.524 
1333 7 2 -3.04343 -1.47374 -12.7482 
1792 10 2 -2.60723 -0.460296 -12.857 
1302 7 2 -0.0486088 -0.302664 -13.3414 
1311 7 2 -1.25154 -0.647669 -13.7982 
1337 7 3 -0.828025 -1.34618 -12.9658 
1336 7 1 -1.14458 -0.0597213 -14.0975 
1334 7 4 -1.92753 -0.47956 -14.4688 
1308 7 2 -0.700447 -0.0760109 -13.5613 
4036 28 2 -0.263181 -11.1845 -10.9768 
4027 28 3 -4.24112 -9.27674 -11.063 
4026 28 3 -4.52749 -8.94343 -10.6274 
4032 28 3 -2.12901 -9.01811 -11.2068 
4038 28 2 -2.13246 -9.59209 -10.9775 
4035 28 3 -0.358054 -10.3899 -12.5028 
2385 15 2 -0.0906586 -8.87235 -10.5814 
820 4 4 -7.39094 -8.26581 -10.5651 
4044 28 2 -4.26989 -7.84896 -10.6666 
4030 28 3 -3.142 -8.16942 -11.4366 
4045 28 3 -2.66046 -6.87031 -11.1605 
1740 10 3 -0.254414 -6.76418 -10.5965 
720 4 3 -6.73275 -6.12159 -10.9369 
717 4 2 -7.54783 -4.33622 -11.0643 
700 4 3 -8.28418 -4.80525 -11.8999 
327 2 3 -4.94008 -5.14698 -12.0906 
317 2 3 -5.04792 -5.00507 -10.7845 
326 2 3 -5.01579 -5.56186 -12.1783 
1797 10 3 -1.57595 -4.61016 -12.1275 
1798 10 3 -1.07905 -4.68263 -10.8544 
2390 15 1 -1.63671 -5.3993 -10.8341 
2391 15 3 -0.658672 -6.32093 -10.9376 
1796 10 2 -1.38158 -5.84925 -11.6032 
1794 10 3 -0.848065 -4.35281 -12.035 
1795 10 2 -1.26499 -4.51933 -12.2925 
712 4 3 -6.64294 -3.16641 -10.6622 
711 4 3 -6.71031 -3.59736 -10.7546 
710 4 3 -6.59404 -3.18724 -11.1046 
709 4 2 -7.41257 -2.23958 -11.9178 
708 4 3 -7.86834 -3.64827 -12.3643 
713 4 3 -6.08566 -2.59235 -10.5894 
331 2 3 -5.70711 -2.70992 -11.8448 
332 2 3 -4.37666 -2.34494 -11.624 
330 2 3 -6.18241 -3.11488 -12.0549 
329 2 3 -5.96541 -3.91746 -12.5333 
1363 7 2 -4.24606 -3.36352 -10.6133 
1361 7 3 -4.75583 -3.61626 -11.4053 
1793 10 2 -2.60017 -2.20499 -12.0403 
1362 7 3 -3.8956 -3.38 -11.9304 
1319 7 3 -2.01533 -2.60041 -11.0624 
1312 7 2 -0.445818 -2.13158 -11.5878 
1318 7 3 -1.76763 -2.97408 -12.2687 
1320 7 3 -1.67883 -2.13862 -11.171 
1321 7 3 -1.17044 -2.62649 -11.1255 
1387 7 2 -5.26512 -0.633848 -11.3662 
334 2 2 -4.5807 -0.963429 -12.6314 
1385 7 3 -6.03775 -0.124373 -10.866 
333 2 3 -4.38002 -0.358194 -12.0645 
1332 7 2 -2.76638 -1.47406 -10.9318 
1331 7 2 -2.90484 -1.164 -11.2954 
1338 7 5 -0.0554333 -0.0922097 -11.2789 
1307 7 3 -0.942266 -0.608387 -12.536 
1790 10 3 -1.72923 -0.92653 -12.2825 
1789 10 3 -0.756077 -0.188365 -10.5744 
882 4 3 -4.62857 -10.5615 -9.063 
725 4 3 -4.40625 -10.7509 -8.79948 
727 4 3 -2.46067 -10.5389 -9.32859 
726 4 3 -3.30922 -11.248 -9.16663 
728 4 3 -2.45255 -10.6242 -8.8362 
730 4 2 -1.58066 -10.697 -9.69426 
824 4 3 -11.0702 -8.55111 -9.67345 
825 4 3 -11.541 -8.86945 -8.69874 
823 4 3 -9.57213 -8.54943 -10.5183 
879 4 3 -7.01771 -9.95037 -8.88776 
878 4 2 -6.49874 -9.47572 -9.02606 
4025 28 3 -4.56694 -8.92537 -9.76772 
4024 28 3 -4.81173 -8.83806 -10.3499 
724 4 3 -5.038 -9.94731 -9.3239 
881 4 3 -5.33194 -10.4167 -8.91857 
4023 28 3 -3.92781 -8.89513 -8.78747 
4042 28 3 -2.87933 -9.04195 -9.79741 
811 4 2 -3.02106 -8.57681 -9.73613 
729 4 3 -2.29422 -9.8572 -8.44815 
2387 15 2 -3.20819 -9.14153 -9.08496 
4040 28 3 -1.40414 -8.75367 -9.82857 
4039 28 3 -1.48414 -8.81752 -9.96352 
4037 28 2 -1.18773 -10.048 -10.4633 
408 2 2 -8.99197 -7.45862 -9.22155 
406 2 3 -9.11082 -6.68913 -8.54213 
409 2 2 -8.66581 -8.27415 -8.79951 
818 4 3 -7.02641 -7.98647 -9.13012 
821 4 2 -7.40936 -7.80359 -9.91897 
819 4 3 -7.58363 -7.32384 -9.2624 
822 4 3 -8.38892 -7.51601 -10.3629 
722 4 3 -5.65149 -6.89133 -9.32155 
723 4 3 -5.78576 -7.95662 -9.59187 
721 4 3 -5.79284 -6.81246 -9.5286 
808 4 3 -4.33488 -7.26233 -9.26003 
4043 28 3 -4.18046 -7.58438 -10.1032 
812 4 2 -2.39631 -7.76669 -10.318 
809 4 3 -3.65419 -7.32581 -10.1669 
810 4 3 -3.31843 -7.47923 -9.73406 
3303 25 2 -2.58686 -7.50561 -8.8834 
4041 28 2 -1.82069 -8.25026 -10.4668 
718 4 2 -8.08096 -6.25654 -10.4707 
719 4 3 -7.50544 -5.69344 -10.4121 
699 4 3 -7.18527 -5.40584 -9.75759 
3985 28 2 -6.40123 -4.79994 -8.46094 
316 2 3 -4.49934 -4.95778 -9.71509 
813 4 3 -2.72519 -6.08408 -10.2072 
315 2 2 -3.92101 -4.47736 -9.48599 
815 4 3 -3.88945 -5.17051 -8.50966 
814 4 2 -3.11221 -5.66585 -10.2696 
318 2 2 -3.35745 -5.34507 -10.387 
314 2 2 -2.7079 -5.52169 -9.38597 
4046 28 3 -2.05906 -5.07877 -9.44477 
3978 28 2 -8.95326 -2.94199 -9.37863 
3979 28 3 -8.26373 -2.45837 -9.23819 
715 4 3 -4.76169 -2.48691 -9.78945 
716 4 2 -5.43937 -4.13571 -10.4231 
1381 7 3 -5.13187 -2.72751 -9.71995 
1802 10 2 -2.36711 -2.56376 -8.48785 
1801 10 2 -3.31533 -2.57817 -9.25014 
1380 7 3 -3.71864 -3.06902 -10.405 
1799 10 3 -1.67059 -3.65712 -10.0548 
1800 10 3 -1.13101 -3.22257 -8.76796 
385 2 2 -8.90237 -0.440801 -8.62617 
381 2 2 -9.56318 -0.00916091 -9.99235 
387 2 3 -7.94983 -1.37112 -8.45714 
1814 10 1 -6.42972 -0.955286 -8.52388 
714 4 2 -5.16939 -2.04445 -9.38084 
1382 7 3 -5.0127 -0.69485 -8.766 
1379 7 2 -5.01468 -0.528185 -10.3776 
1378 7 1 -5.56399 -1.42722 -9.52499 
1388 7 3 -5.44583 -0.199594 -10.4901 
1383 7 3 -4.88736 -0.356326 -9.81545 
1364 7 1 -3.06697 -1.31443 -9.91888 
1375 7 2 -3.85344 -1.86679 -8.73543 
1365 7 2 -2.53991 -1.41088 -10.2816 
1376 7 2 -4.14413 -1.84541 -8.92575 
1309 7 2 -0.881274 -0.308544 -10.5287 
1330 7 2 -1.17711 -1.90891 -10.4491 
1369 7 2 -2.09963 -0.482226 -9.39089 
1231 6 2 -1.47875 -1.03023 -8.62907 
1225 6 2 -0.202676 -0.341517 -8.62408 
1366 7 2 -2.0752 -1.20256 -8.4717 
873 4 3 -4.49873 -12.7765 -7.12279 
749 4 2 -0.339597 -13.0147 -6.75405 
748 4 2 -1.6953 -12.808 -7.93354 
732 4 2 -0.980729 -12.7162 -7.19139 
747 4 3 -1.69916 -12.739 -8.28857 
876 4 2 -4.73227 -11.1266 -6.95163 
875 4 2 -5.56189 -12.4785 -8.37934 
874 4 3 -4.91161 -12.4288 -8.13547 
872 4 3 -4.38457 -12.1352 -7.61052 
862 4 2 -4.25548 -12.0235 -6.41372 
871 4 3 -3.52903 -12.2378 -7.33843 
870 4 3 -3.69812 -11.8192 -6.70941 
744 4 3 -2.18455 -11.9576 -6.57142 
745 4 2 -1.86352 -11.0585 -7.54447 
746 4 3 -1.9504 -11.7813 -7.36803 
734 4 2 -0.471293 -12.2117 -6.94369 
733 4 3 -0.166054 -12.0613 -7.18118 
731 4 5 -0.891993 -11.65 -7.79806 
827 4 3 -11.2372 -8.67003 -6.45947 
826 4 3 -11.2802 -9.02936 -7.69312 
410 2 2 -8.77979 -8.53931 -8.35482 
4022 28 2 -4.88661 -8.91411 -7.24096 
880 4 3 -5.91751 -10.1229 -8.41927 
4021 28 2 -3.63993 -8.49084 -8.22016 
2388 15 2 -2.98053 -8.86321 -8.36076 
3304 25 2 -2.25348 -9.08395 -6.88947 
3305 25 3 -1.95935 -10.1243 -7.06544 
3307 25 3 -1.09944 -9.79847 -7.61569 
3308 25 2 -0.207021 -9.55611 -7.18193 
3306 25 3 -2.00374 -9.49847 -6.72622 
3969 28 2 -11.6882 -7.09194 -6.45536 
407 2 3 -8.85948 -6.8952 -8.24238 
411 2 3 -10.2914 -7.12104 -8.18125 
817 4 3 -6.43906 -7.61479 -8.37739 
403 2 2 -6.95879 -6.42218 -6.41388 
816 4 3 -5.27526 -6.32817 -8.22917 
807 4 3 -4.9721 -6.59664 -8.23104 
805 4 2 -4.60571 -7.04518 -7.05772 
4020 28 2 -3.6552 -8.30993 -6.80285 
804 4 3 -2.87482 -7.05585 -7.44097 
2389 15 1 -2.87504 -6.7237 -8.19282 
4014 28 2 -2.42333 -7.66472 -7.70141 
4015 28 2 -2.15093 -7.70503 -7.83352 
313 2 2 -2.20059 -6.60711 -6.77298 
3298 25 3 -1.01071 -6.80574 -7.94908 
4016 28 3 -1.30577 -7.7605 -7.20272 
803 4 3 -0.819375 -8.17478 -6.4728 
2386 15 2 -1.34761 -8.37797 -8.1574 
3204 24 4 -13.2711 -5.27951 -7.00222 
412 2 2 -10.6298 -5.48016 -7.91038 
696 4 2 -10.7675 -4.5975 -6.36617 
3973 28 3 -11.7153 -4.33533 -7.08499 
413 2 3 -10.251 -4.98158 -7.58291 
697 4 3 -9.56974 -5.07051 -7.35354 
3987 28 2 -9.20708 -5.52636 -7.18743 
405 2 3 -8.21393 -6.12609 -8.38321 
698 4 2 -7.04273 -5.51484 -8.27139 
404 2 3 -8.01155 -5.88632 -7.3009 
806 4 2 -5.59084 -6.23864 -7.99101 
4028 28 2 -2.24914 -4.96987 -7.95734 
4047 28 3 -2.45396 -4.26933 -8.04334 
312 2 2 -3.79435 -5.188 -7.401 
4031 28 3 -1.90408 -5.57591 -7.37222 
3297 25 3 -1.35805 -6.31739 -8.1146 
3299 25 3 -0.788045 -6.07024 -7.6809 
3296 25 2 -1.50756 -5.64787 -8.0541 
3975 28 3 -11.2328 -2.94363 -6.62011 
694 4 2 -12.4172 -3.27936 -8.20456 
3974 28 3 -11.183 -3.2085 -7.16101 
3111 24 2 -11.0726 -2.37026 -7.49249 
695 4 3 -9.80565 -3.37369 -6.63205 
693 4 2 -9.60724 -3.49181 -7.36734 
3986 28 2 -7.93495 -3.65958 -8.18618 
3984 28 3 -7.44162 -3.31652 -7.91673 
393 2 3 -6.51604 -2.83693 -6.94475 
395 2 3 -7.31967 -2.83074 -6.43407 
1803 10 4 -4.46919 -3.08606 -7.15373 
417 2 3 -5.46696 -3.74972 -6.39027 
419 2 3 -5.05378 -4.10583 -6.34322 
1813 10 3 -5.49447 -3.06923 -7.41822 
1807 10 2 -2.11503 -2.57479 -6.82805 
4048 28 2 -2.12607 -3.54171 -7.66083 
4049 28 3 -2.06217 -3.27855 -6.9616 
4050 28 3 -0.918319 -3.96685 -7.53835 
4051 28 2 -1.38701 -2.54214 -8.31885 
4052 28 2 -0.434213 -2.42118 -8.02408 
3113 24 3 -11.7354 -1.35519 -6.63537 
3114 24 2 -11.1495 -0.441981 -7.03364 
3112 24 2 -11.6097 -0.351629 -7.43066 
3115 24 2 -11.1222 -0.382409 -8.18442 
3977 28 3 -9.27382 -1.77647 -7.39389 
383 2 2 -8.74194 -1.18625 -7.99212 
384 2 3 -9.84891 -0.0674236 -7.42567 
3982 28 2 -7.09005 -1.12651 -7.59018 
3981 28 6 -7.40509 -2.02115 -7.90864 
3980 28 2 -7.40751 -0.868715 -7.28768 
386 2 5 -8.09471 -1.65402 -7.81594 
392 2 3 -7.90529 -1.33478 -7.32191 
388 2 3 -6.92188 -0.986474 -7.99572 
391 2 3 -8.12211 -1.22417 -8.12643 
389 2 3 -6.41413 -0.313195 -7.38552 
394 2 2 -5.43369 -1.48817 -6.96298 
1804 10 2 -5.59916 -1.52538 -6.79203 
1371 7 2 -5.70993 -0.186214 -6.53403 
1373 7 1 -4.92943 -0.322934 -7.86014 
1812 10 2 -5.11961 -1.38624 -7.86805 
1374 7 2 -4.49075 -0.932488 -7.55228 
1372 7 3 -4.92063 -0.729826 -7.24806 
1808 10 2 -2.13594 -0.920768 -6.81083 
1810 10 3 -2.69223 -0.863437 -6.68633 
1806 10 3 -2.31196 -1.68971 -6.61247 
1377 7 2 -3.35943 -1.52753 -8.00633 
1367 7 2 -1.14159 -0.752156 -7.34431 
1368 7 5 -1.01744 -0.731383 -7.13181 
280 2 2 -0.45482 -0.174667 -7.11304 
860 4 3 -5.72011 -13.0985 -6.28996 
861 4 3 -6.07354 -12.9067 -5.85463 
742 4 3 -2.87396 -13.2167 -6.10284 
739 4 2 -2.78861 -12.9777 -4.5536 
736 4 3 -1.07589 -13.2356 -5.28073 
737 4 3 -1.76857 -12.7914 -5.53469 
738 4 2 -1.40853 -14.019 -5.94573 
1898 11 3 -0.196707 -14.2322 -4.89159 
1899 11 3 -0.0405938 -13.4676 -5.06521 
1901 11 2 -2.04889 -14.1896 -4.59168 
3995 28 2 -9.957 -11.2166 -5.23618 
3996 28 2 -8.20995 -12.4074 -4.5534 
3998 28 2 -6.52832 -10.9577 -4.57757 
864 4 3 -4.67905 -11.1168 -4.82115 
865 4 3 -4.81565 -10.8966 -5.27594 
859 4 3 -4.27175 -11.7798 -5.4704 
863 4 3 -4.9995 -10.9135 -5.0489 
868 4 3 -3.24883 -11.0749 -5.52861 
869 4 3 -3.85543 -10.868 -6.21703 
743 4 3 -3.40354 -12.4701 -5.93237 
740 4 2 -2.19915 -11.5484 -5.01878 
867 4 3 -3.68712 -10.571 -5.87672 
795 4 2 -0.00981531 -10.5974 -5.50834 
741 4 3 -1.90079 -11.4586 -4.294 
735 4 3 -0.550804 -11.806 -5.53178 
830 4 3 -10.7624 -8.84014 -4.38458 
829 4 3 -10.663 -8.68157 -5.36037 
3994 28 2 -10.1186 -9.98268 -5.40232 
3993 28 3 -10.4955 -10.1879 -5.95056 
4000 28 2 -8.5804 -8.87378 -4.63186 
3999 28 2 -6.43119 -9.62734 -4.34148 
3243 24 3 -6.72981 -8.44067 -5.69107 
4794 33 6 -4.35312 -9.40524 -4.22077 
4018 28 3 -2.79164 -8.42916 -5.16416 
866 4 2 -3.8671 -10.3914 -5.71758 
4017 28 3 -2.78824 -8.66925 -5.92516 
858 4 2 -3.12583 -9.28406 -4.5658 
4798 33 2 -1.40291 -10.2028 -4.42129 
3292 24 2 -13.6271 -7.15903 -4.44262 
3968 28 3 -11.6971 -6.95241 -4.73453 
3290 24 2 -12.3643 -6.50815 -5.05793 
3252 24 3 -10.8447 -7.74051 -4.67585 
828 4 3 -10.2658 -8.00465 -6.04541 
3992 28 3 -9.51363 -7.94018 -5.32607 
3206 24 2 -9.45368 -7.46968 -5.61947 
3246 24 2 -6.37505 -6.98796 -4.7353 
3245 24 2 -5.75266 -7.59848 -4.87364 
3244 24 2 -5.11535 -8.1684 -4.85576 
429 2 2 -4.30783 -6.80685 -4.45438 
4019 28 2 -3.57287 -8.37523 -5.91596 
4013 28 2 -2.41591 -7.25348 -5.9075 
3312 25 3 -0.0230066 -7.91712 -5.46144 
3288 24 2 -13.1127 -4.23639 -4.8382 
3203 24 2 -14.4721 -5.37362 -5.21672 
3205 24 1 -11.4417 -5.64534 -5.77394 
3972 28 3 -11.9475 -4.85745 -6.29121 
3971 28 3 -12.1643 -5.06856 -5.91851 
3970 28 3 -11.7928 -5.73021 -6.12376 
3990 28 2 -11.4108 -6.1067 -4.54091 
414 2 3 -8.72369 -5.6823 -5.93272 
4090 28 3 -9.20319 -4.22765 -4.58132 
3988 28 3 -8.91428 -5.60496 -6.05773 
3989 28 3 -10.5153 -6.15641 -5.64922 
4088 28 2 -9.94528 -5.21358 -4.7693 
4091 28 4 -8.71538 -5.08194 -5.27402 
3249 24 2 -7.49335 -4.46241 -4.35727 
415 2 2 -7.86899 -4.98016 -5.65684 
399 2 3 -6.98223 -5.99076 -4.95286 
418 2 3 -5.43115 -4.36065 -6.21459 
428 2 2 -4.46311 -4.92532 -4.75213 
420 2 2 -4.94286 -4.23345 -5.68192 
400 2 2 -5.69891 -5.90175 -6.01906 
401 2 3 -5.34435 -5.40885 -6.14783 
402 2 2 -6.11674 -5.57264 -5.8809 
422 2 2 -2.27593 -4.86607 -6.11223 
421 2 2 -3.24938 -5.04934 -5.63423 
311 2 2 -1.88989 -6.11242 -6.164 
4784 33 2 -1.78248 -6.04023 -5.81586 
4785 33 3 -2.04956 -4.44746 -5.3346 
3300 25 2 -1.90235 -5.94572 -5.70391 
3939 28 3 -13.6914 -4.10385 -4.25198 
3976 28 2 -10.9056 -3.66343 -5.61138 
3280 24 2 -12.0425 -2.31841 -4.24878 
3287 24 2 -11.5931 -3.46625 -4.31056 
3285 24 3 -10.6907 -2.71168 -5.49711 
4089 28 3 -9.09006 -3.55106 -4.59348 
3286 24 3 -9.66641 -3.3163 -4.54486 
3110 24 3 -9.35047 -2.60391 -5.56498 
396 2 3 -7.7714 -2.67344 -5.59803 
397 2 3 -7.30374 -3.92488 -5.30234 
416 2 3 -6.45954 -3.95005 -6.15325 
692 4 2 -5.66785 -2.22781 -4.95563 
398 2 2 -5.64158 -3.69915 -4.82558 
427 2 2 -3.35538 -3.8916 -5.53426 
426 2 2 -3.40928 -3.8322 -4.40233 
4076 28 2 -3.72305 -2.34466 -4.53636 
298 2 2 -0.110521 -3.26894 -4.87909 
423 2 2 -1.94677 -3.89982 -4.33154 
4777 33 3 -1.30847 -2.39586 -4.30441 
4786 33 2 -1.2916 -3.73966 -5.45557 
299 2 3 -0.241264 -3.15125 -6.31446 
3160 24 2 -13.0624 -1.06359 -4.85216 
3283 24 3 -11.027 -1.55899 -5.34618 
3284 24 3 -10.5965 -1.58877 -5.28379 
3271 24 3 -10.9838 -0.355122 -4.49139 
3281 24 2 -10.3439 -1.70618 -5.43185 
3282 24 3 -10.4902 -1.03671 -5.10615 
3270 24 2 -9.6781 -1.73814 -4.36552 
3983 28 3 -7.59784 -1.64581 -6.27453 
4081 28 3 -7.27894 -1.30298 -4.53967 
4080 28 2 -6.94613 -1.22616 -4.51997 
1811 10 3 -4.26185 -1.01648 -6.08577 
1805 10 2 -4.01097 -0.919371 -5.14302 
1809 10 3 -2.08369 -1.30406 -5.9074 
258 2 2 -0.809564 -0.533172 -5.70231 
4776 33 3 -0.540699 -2.06442 -5.04887 
261 2 2 -0.409064 -0.375223 -4.32155 
5731 42 4 -1.65388 -0.98616 -4.86354 
5726 42 1 -0.825067 -1.45534 -4.2312 
1859 11 2 -4.86224 -15.0573 -2.2582 
1905 11 3 -1.08454 -14.9103 -2.91134 
843 4 3 -6.92416 -13.2266 -2.20904 
844 4 5 -6.49131 -13.1543 -3.70723 
1861 11 5 -4.25448 -14.3023 -2.19723 
1855 11 3 -5.51715 -13.8411 -2.50159 
1854 11 3 -5.63412 -12.6728 -2.26699 
1862 11 5 -2.13664 -14.4502 -3.88076 
1897 11 5 -1.09513 -14.2813 -3.70571 
1865 11 3 -0.204055 -13.1526 -2.41586 
1863 11 3 -0.774554 -12.666 -3.0093 
1864 11 3 -0.166817 -13.1605 -2.57593 
1896 11 3 -0.735314 -12.6538 -4.00348 
1834 11 3 -1.28863 -13.742 -3.19678 
1904 11 3 -0.468421 -14.1823 -2.79732 
1902 11 3 -1.97202 -13.7545 -3.22676 
1903 11 2 -0.973675 -13.8832 -2.87076 
3234 24 3 -9.82281 -11.4478 -2.16949 
3230 24 2 -9.26412 -10.9092 -3.0172 
847 4 2 -4.89333 -11.0978 -3.49045 
850 4 3 -4.96679 -11.0188 -3.16193 
849 4 3 -3.40886 -10.9774 -2.31312 
4801 33 3 -0.692115 -10.8003 -2.14406 
1833 11 6 -1.56954 -12.2012 -3.00165 
1832 11 2 -0.357788 -11.9465 -3.43596 
4800 33 2 -0.49393 -11.2136 -3.12011 
3948 28 3 -13.332 -8.45062 -3.07561 
3966 28 5 -12.4024 -8.69664 -2.80033 
3965 28 3 -12.1627 -8.61415 -2.28175 
831 4 3 -10.7962 -8.73436 -3.53488 
3949 28 3 -11.9994 -9.0342 -2.87619 
3950 28 3 -11.5658 -9.50823 -2.36923 
3951 28 3 -11.4398 -9.39705 -2.11183 
3242 24 2 -9.0475 -9.21439 -3.87674 
4001 28 2 -9.59743 -9.28402 -3.33911 
3229 24 2 -9.07505 -9.92014 -4.16367 
3253 24 2 -8.44408 -8.60897 -3.70857 
3232 24 3 -9.447 -9.68562 -2.73158 
3254 24 3 -9.371 -9.11627 -3.74336 
3997 28 2 -7.68792 -10.073 -3.71461 
3228 24 2 -8.05066 -9.92965 -2.52192 
3231 24 3 -8.41558 -10.0851 -3.69036 
3226 24 2 -6.83495 -9.48834 -2.15949 
846 4 2 -5.59109 -9.86733 -2.60305 
851 4 2 -5.44159 -8.75637 -3.19432 
855 4 3 -4.68103 -9.69236 -2.24057 
4793 33 3 -4.94911 -8.61263 -3.47079 
4797 33 1 -2.98143 -9.37555 -3.57579 
856 4 3 -4.07639 -8.88834 -3.00092 
857 4 3 -2.94727 -9.01478 -3.74358 
4806 33 2 -3.35073 -9.95131 -2.12679 
780 4 2 -0.292088 -8.81024 -2.15722 
4799 33 2 -0.552187 -9.66512 -3.481 
4796 33 2 -0.919437 -9.48224 -3.68011 
3291 24 1 -12.9269 -6.54765 -2.90094 
3947 28 3 -14.0394 -7.63226 -3.12461 
3942 28 3 -14.5516 -7.37349 -3.53021 
3943 28 2 -13.6658 -7.79055 -3.0214 
3944 28 3 -13.8907 -7.76468 -2.93464 
3941 28 3 -14.3591 -6.43455 -4.14807 
834 4 2 -11.2147 -7.08082 -2.9813 
3991 28 2 -10.982 -6.53966 -4.21146 
3967 28 2 -11.8881 -7.25676 -3.04643 
3963 28 2 -10.9438 -7.58723 -2.17997 
832 4 2 -12.2875 -8.40351 -2.6114 
4084 28 2 -8.88948 -6.49414 -3.25004 
3221 24 3 -8.45157 -7.27513 -3.35378 
3219 24 3 -9.84445 -6.53546 -3.19749 
3220 24 3 -9.83938 -6.95174 -3.33006 
3207 24 2 -8.21513 -6.3926 -3.3041 
3248 24 2 -7.10242 -6.32261 -2.75669 
3241 24 3 -7.87538 -7.85926 -4.19843 
3213 24 2 -6.95655 -7.10943 -2.14032 
3212 24 4 -8.2681 -8.35379 -2.70487 
3215 24 2 -7.62634 -7.10495 -3.67368 
3222 24 3 -7.46117 -8.00052 -3.02366 
877 4 2 -3.13952 -6.96373 -4.1599 
4009 28 3 -4.08901 -7.74219 -2.43095 
4792 33 3 -3.47004 -7.64336 -2.48434 
4795 33 2 -2.34153 -7.45109 -3.80816 
792 4 5 -0.411759 -7.46636 -3.12644 
4012 28 2 -1.83443 -7.98686 -3.96885 
4011 28 2 -1.86477 -8.10681 -3.11299 
793 4 3 -0.438763 -7.98499 -3.99719 
4010 28 3 -2.07535 -6.84846 -3.20342 
4782 33 2 -0.276164 -6.65532 -2.8207 
3940 28 2 -14.9313 -5.12409 -3.56853 
3289 24 2 -13.0172 -5.98442 -2.80322 
3202 24 2 -13.1202 -4.94619 -2.23815 
3156 24 2 -12.6047 -5.16589 -2.59551 
3256 24 2 -10.8563 -5.15285 -3.36642 
4087 28 3 -9.78167 -4.72089 -3.91165 
4086 28 3 -8.87114 -5.2927 -3.43287 
4085 28 2 -9.1985 -5.44489 -3.66693 
3257 24 2 -9.70723 -5.44177 -2.54455 
3251 24 2 -10.1698 -6.05997 -3.46404 
3210 24 3 -9.12534 -6.28699 -2.82844 
3216 24 3 -8.4574 -5.76197 -3.44091 
4092 28 3 -7.90741 -4.23364 -3.31132 
3208 24 3 -7.91068 -6.25262 -2.26411 
3214 24 2 -7.34261 -6.23959 -3.10837 
3218 24 2 -8.33511 -4.54326 -3.15202 
4095 28 2 -7.3271 -4.84457 -2.64043 
3247 24 2 -5.10696 -4.81227 -2.62849 
4224 29 2 -5.15567 -5.37971 -2.14966 
430 2 3 -5.37611 -5.58448 -3.82721 
4097 28 2 -5.70377 -4.40144 -3.59641 
431 2 3 -5.24202 -6.28817 -2.85286 
4791 33 3 -3.36207 -6.24575 -2.58591 
4789 33 3 -3.04014 -5.84201 -2.7569 
4790 33 3 -3.52936 -5.94095 -2.55727 
425 2 5 -3.46757 -4.57811 -3.831 
4783 33 3 -1.61632 -5.95381 -4.14984 
424 2 2 -1.81169 -4.48242 -3.67568 
4788 33 2 -1.73585 -5.81518 -3.83301 
4787 33 3 -2.09576 -4.22669 -4.07861 
3158 24 2 -13.2863 -2.139 -2.61991 
3938 28 3 -13.6344 -4.10659 -3.79801 
3157 24 2 -12.3053 -2.72395 -2.75908 
3937 28 3 -12.4274 -3.85895 -3.05326 
4093 28 2 -8.90967 -3.53609 -3.36178 
3936 28 2 -10.3425 -2.84952 -3.5178 
4094 28 2 -9.18319 -3.56873 -2.68806 
4083 28 2 -7.47121 -3.36865 -3.44588 
3269 24 2 -6.89798 -2.20722 -3.05231 
3250 24 2 -8.29369 -4.16667 -3.6382 
3931 28 3 -8.28122 -2.62313 -2.33551 
3928 28 3 -7.87179 -3.55635 -2.1503 
3927 28 2 -7.10615 -2.88486 -2.15292 
4100 28 2 -4.41244 -3.28677 -2.4261 
4078 28 3 -5.99175 -2.786 -2.81111 
4077 28 2 -5.15345 -2.97774 -3.9767 
3926 28 2 -5.14435 -2.51583 -3.68578 
4067 28 1 -3.79425 -3.51153 -3.45991 
4068 28 2 -2.81169 -2.41965 -2.7402 
4071 28 2 -2.78993 -3.01049 -3.71552 
4070 28 3 -4.20704 -3.05178 -3.89152 
4069 28 3 -3.00609 -2.7389 -3.88391 
297 2 2 -0.484105 -3.76838 -4.09955 
4779 33 3 -0.116883 -4.09496 -3.20868 
4778 33 3 -0.648938 -3.15971 -3.98568 
5727 42 2 -1.32309 -2.7525 -3.25094 
3190 24 2 -13.6395 -0.817365 -3.42839 
3192 24 2 -14.25 -0.426219 -3.29329 
3164 24 2 -14.3388 -0.0690791 -2.27915 
3193 24 2 -13.2737 -1.4029 -2.94264 
3159 24 2 -12.6586 -1.50298 -3.57336 
3161 24 2 -14.4022 -0.970422 -3.45527 
3064 24 2 -11.4338 -0.0670655 -2.8073 
3275 24 2 -10.9351 -1.27222 -2.60644 
3063 24 2 -11.2095 -0.549895 -3.0101 
3279 24 2 -11.6364 -0.37207 -4.15271 
3274 24 3 -9.48534 -1.25691 -3.75803 
3273 24 2 -9.88504 -1.03016 -3.66075 
3057 24 3 -9.49522 -0.33782 -2.60139 
4082 28 2 -7.26522 -1.90222 -3.9745 
4079 28 2 -6.45638 -1.9084 -3.28427 
3267 24 3 -5.61569 -1.6737 -3.58924 
4074 28 2 -5.0826 -2.0928 -3.379 
4075 28 7 -6.10393 -1.54599 -2.68673 
3268 24 2 -4.33519 -1.45968 -4.1911 
4066 28 1 -4.84496 -2.0521 -2.79973 
5767 43 2 -3.72895 -1.22609 -2.43374 
5769 43 2 -3.4692 -0.993192 -2.55333 
4072 28 3 -3.36565 -1.74835 -2.55261 
4065 28 2 -2.43155 -0.249736 -3.70912 
4073 28 3 -3.80921 -1.38672 -3.23518 
5770 43 2 -3.94059 -0.0235787 -3.86454 
4058 28 2 -2.05209 -0.258212 -3.95588 
5730 42 1 -0.0812546 -1.13336 -2.63774 
5733 42 3 -1.68628 -0.474613 -4.07331 
4774 33 2 -1.57054 -0.865379 -3.46892 
262 2 3 -1.42144 -0.345958 -2.44829 
4064 28 2 -1.87534 -1.39319 -2.20676 
5732 42 2 -0.607597 -1.38934 -4.02305 
1837 11 2 -3.0359 -14.8162 -0.729278 
1860 11 3 -3.7332 -15.657 -1.69036 
1835 11 3 -1.5334 -15.485 -0.6956 
1836 11 3 -1.6164 -15.9981 -0.424625 
1871 11 1 -0.278775 -15.1777 -0.851948 
842 4 3 -7.28632 -13.6806 -1.41258 
841 4 3 -8.21395 -13.2978 -1.39397 
1858 11 2 -5.91084 -13.6824 -1.82955 
1856 11 3 -5.82227 -13.9469 -2.07081 
1857 11 3 -4.96305 -13.5675 -1.23842 
1906 11 3 -2.80177 -13.5962 -1.91451 
1913 11 3 -2.37904 -13.8962 -0.387533 
1907 11 3 -2.21426 -13.191 -1.07237 
1910 11 2 -1.06827 -13.8372 -1.92382 
1909 11 2 -1.20835 -13.1357 -1.96483 
1911 11 2 -1.10212 -14.5806 -0.734294 
1872 11 2 -0.270276 -13.1022 -2.06222 
1912 11 3 -1.74092 -13.5574 -0.912052 
840 4 3 -8.5408 -10.9364 -1.22548 
3235 24 3 -8.96517 -10.7607 -1.04549 
1853 11 3 -6.34637 -12.4132 -0.886977 
845 4 2 -5.11485 -11.2017 -1.57636 
848 4 3 -4.28818 -11.5932 -2.03917 
854 4 3 -5.7659 -10.7333 -1.22094 
4802 33 3 -2.27914 -11.6561 -0.711352 
1842 11 2 -3.38575 -10.8723 -0.391543 
1696 10 3 -0.428871 -10.5773 -0.391485 
1908 11 2 -1.65964 -12.4162 -0.84995 
4803 33 4 -1.76943 -10.9601 -0.696184 
4805 33 2 -1.65561 -10.6666 -2.09745 
3953 28 3 -12.2137 -8.87501 -1.04361 
3952 28 3 -11.4036 -9.55832 -0.473642 
4004 28 2 -8.86 -8.83732 -0.309196 
4002 28 2 -10.3702 -8.53144 -1.53356 
3227 24 2 -8.82756 -10.3659 -1.54645 
3233 24 3 -9.89911 -10.3354 -1.71011 
836 4 2 -8.29803 -9.05295 -0.490633 
3237 24 2 -7.27897 -10.043 -1.53538 
3236 24 5 -6.71836 -10.0543 -1.89419 
3239 24 3 -7.24852 -9.89881 -0.829865 
3225 24 2 -6.34358 -9.41867 -1.66872 
839 4 3 -7.74985 -9.72819 -1.4099 
837 4 3 -7.96388 -8.88674 -1.42672 
3224 24 2 -7.03968 -10.2652 -2.00501 
3238 24 3 -6.4331 -9.69251 -0.448072 
435 2 3 -6.72477 -8.47158 -0.41147 
4008 28 2 -4.67499 -9.15588 -0.86891 
853 4 3 -4.58478 -8.84265 -0.745754 
852 4 3 -5.13041 -9.01689 -1.25445 
3240 24 3 -6.2039 -8.65452 -1.97776 
4007 28 5 -5.85389 -10.5192 -0.344307 
1844 11 3 -3.48642 -10.1668 -0.321857 
1846 11 2 -3.06063 -8.99354 -0.915691 
1845 11 3 -3.84804 -8.43144 -0.962806 
4804 33 3 -2.27257 -10.2818 -1.51724 
4807 33 3 -2.34261 -8.58495 -1.56237 
4620 32 1 -4.20354 -9.15046 -0.383363 
1841 11 3 -2.06485 -8.61748 -0.145724 
4816 33 3 -1.03646 -8.65181 -0.455876 
1698 10 2 -0.610728 -9.62302 -1.17569 
1697 10 2 -1.01885 -9.80741 -0.644294 
3959 28 2 -13.3277 -7.14365 -0.5299 
3946 28 3 -13.5856 -7.42467 -1.75517 
3960 28 2 -12.7705 -7.18288 -0.912184 
3945 28 3 -14.2804 -7.17984 -1.88486 
3955 28 3 -14.0695 -7.3243 -1.36309 
3961 28 3 -12.7609 -7.71528 -0.246438 
3964 28 3 -11.4874 -8.03266 -1.66882 
3954 28 3 -12.4005 -8.41371 -0.927326 
833 4 2 -11.274 -6.63008 -1.44776 
3962 28 2 -12.4852 -7.02322 -0.880377 
3255 24 2 -10.8817 -6.86826 -1.71745 
835 4 3 -9.70609 -7.36405 -1.9097 
4003 28 2 -10.2257 -8.15482 -0.654065 
3211 24 2 -7.8652 -7.68623 -1.69348 
838 4 2 -8.11457 -7.74707 -0.738022 
3223 24 2 -6.89048 -8.04746 -1.92309 
432 2 3 -5.48577 -6.98191 -1.96302 
434 2 2 -6.19524 -7.73772 -0.786806 
4225 29 3 -5.46929 -6.38955 -2.00313 
433 2 3 -5.87732 -6.99522 -0.985293 
4226 29 2 -4.74186 -6.56925 -0.366897 
4818 33 2 -2.49205 -7.93552 -0.623216 
4819 33 2 -2.59503 -7.67856 -0.0806059 
1699 10 3 -0.460422 -7.83677 -1.96812 
4817 33 2 -1.7558 -8.0279 -0.695618 
4808 33 3 -1.79082 -7.34706 -0.524406 
4815 33 2 -1.92731 -7.11463 -1.09669 
3201 24 2 -14.6741 -5.54685 -1.43192 
3155 24 4 -12.4396 -4.64055 -0.585399 
3199 24 1 -12.1706 -4.82101 -1.89719 
3198 24 4 -11.4415 -5.41182 -0.146685 
3209 24 2 -8.46759 -5.86319 -2.05851 
5224 36 3 -10.1238 -6.2225 -0.146667 
4218 29 3 -7.7524 -4.46514 -0.241805 
3217 24 2 -7.9224 -4.56243 -2.06292 
4099 28 3 -5.87211 -4.94582 -0.780204 
4223 29 3 -6.03818 -5.71346 -0.0559617 
4096 28 5 -6.16851 -5.62903 -1.62905 
4227 29 3 -2.92419 -5.09612 -0.593637 
4813 33 2 -1.9113 -6.3203 -1.63205 
4811 33 3 -0.46001 -5.80111 -1.27165 
4814 33 2 -1.91614 -5.78415 -0.681613 
5878 44 2 -1.62059 -4.964 -1.98062 
4810 33 2 -1.63156 -5.87256 -0.277507 
4812 33 2 -0.667695 -4.93815 -1.47056 
3150 24 3 -11.1549 -3.21013 -0.286196 
3149 24 3 -12.2918 -2.81163 -0.278627 
3259 24 3 -8.95262 -2.67981 -0.762869 
3258 24 2 -9.98608 -3.34127 -1.78037 
3935 28 3 -9.68141 -2.88336 -1.46117 
3934 28 3 -10.1139 -2.79171 -0.790619 
3933 28 2 -10.116 -2.4463 -0.709258 
4098 28 2 -7.87972 -3.8736 -1.10041 
3260 24 3 -7.95894 -2.19134 -1.31156 
3930 28 3 -7.39289 -3.05781 -1.86208 
3932 28 2 -7.74549 -2.39373 -1.43703 
4220 29 2 -7.85579 -2.87854 -0.436637 
3929 28 3 -7.05743 -2.9645 -1.83653 
4101 28 2 -3.86488 -2.41488 -1.93615 
5190 36 3 -2.13525 -3.30815 -0.466867 
4228 29 3 -3.76007 -3.67202 -0.624063 
5729 42 2 -1.0727 -2.69552 -1.97304 
2504 17 1 -0.690296 -3.41894 -0.686729 
5188 36 3 -1.88432 -2.47412 -0.783953 
5728 42 3 -0.643048 -2.86056 -2.09079 
5189 36 3 -1.68619 -2.30431 -1.26832 
5191 36 3 -1.95905 -3.9576 -0.280498 
2565 17 2 -0.138433 -3.81106 -0.0634793 
3169 24 3 -15.3507 -0.381928 -0.0789131 
3168 24 3 -15.7462 -0.579655 -0.301948 
3162 24 2 -15.0673 -1.63128 -1.62422 
3163 24 3 -15.0071 -1.32756 -1.03555 
3187 24 2 -13.7439 -1.10288 -1.33765 
3059 24 2 -12.6529 -0.586425 -1.9824 
3060 24 1 -13.1991 -1.33419 -1.00798 
3188 24 2 -14.1589 -1.5516 -0.85489 
3189 24 6 -14.0895 -0.91602 -1.90994 
3062 24 3 -11.0034 -0.921666 -1.81875 
3276 24 3 -10.6965 -1.29173 -1.73036 
3061 24 2 -12.5236 -1.19043 -1.95641 
3278 24 2 -10.962 -0.89297 -1.86238 
1952 12 2 -8.7598 -0.0134881 -0.387225 
3277 24 2 -10.21 -0.998345 -0.248136 
3262 24 3 -8.64965 -0.860264 -1.03916 
3056 24 2 -10.0017 -0.11478 -2.06951 
1996 12 3 -8.45966 -1.11548 -1.45381 
1995 12 2 -9.55073 -0.00368676 -1.06916 
1997 12 2 -6.384 -0.744016 -1.5351 
3261 24 3 -8.25151 -1.88311 -1.10446 
3069 24 2 -7.90711 -0.0288264 -0.85922 
3264 24 2 -7.87044 -0.0527766 -1.80751 
4102 28 2 -4.97975 -1.34549 -1.23255 
2002 12 2 -5.4265 -0.248152 -1.25227 
4105 28 5 -4.44266 -1.49723 -1.04666 
2001 12 2 -4.10322 -0.120718 -0.130849 
4103 28 2 -4.13432 -1.85275 -0.427453 
4104 28 2 -3.42796 -0.832233 -0.585982 
2768 20 2 -2.95609 -1.39246 -0.00710093 
5186 36 3 -2.53328 -1.85064 -0.744367 
5185 36 3 -2.31704 -0.316315 -1.63861 
4760 33 3 -2.11156 -0.554122 -0.256422 
5187 36 3 -1.85482 -1.98285 -0.887398 
4592 32 2 -4.1229 -14.8141 1.97984 
1850 11 2 -8.68675 -12.6787 0.596506 
1851 11 3 -8.19018 -12.8451 1.41888 
4597 32 3 -4.98281 -13.139 1.05166 
4598 32 3 -3.84363 -13.2939 0.684473 
4596 32 3 -3.41901 -13.7637 0.35796 
4595 32 3 -4.12709 -13.0297 1.02198 
1914 11 3 -2.37726 -13.9664 1.01976 
4591 32 2 -3.31857 -12.9088 1.67313 
4594 32 2 -3.84267 -13.444 2.01635 
4600 32 2 -2.14924 -12.7512 1.25567 
1838 11 3 -2.80365 -13.2649 0.585025 
1917 11 5 -1.91557 -13.1759 1.29352 
4599 32 2 -1.89104 -13.3727 0.664855 
4602 32 3 -1.06791 -13.3175 1.08867 
4607 32 3 -0.343938 -13.6038 2.01123 
4603 32 3 -1.35986 -13.611 0.689093 
4601 32 3 -0.785526 -12.7864 1.16996 
4604 32 6 -0.0482028 -13.1102 1.33659 
5218 36 3 -10.595 -10.7448 0.490258 
5217 36 3 -10.822 -11.0472 1.38305 
4005 28 2 -9.11037 -11.0366 0.722158 
1848 11 2 -6.33781 -11.0612 1.54284 
1852 11 3 -7.39467 -11.8914 0.417785 
1849 11 2 -6.50765 -12.0777 1.08774 
448 2 5 -6.29173 -12.1321 1.94821 
446 2 3 -5.30038 -10.6758 1.68906 
4006 28 2 -5.74945 -11.6436 0.561606 
1847 11 2 -4.24082 -10.9738 0.416148 
449 2 3 -5.34135 -12.3455 1.65556 
4612 32 3 -2.50382 -11.0075 1.99302 
4611 32 3 -2.36251 -11.3923 1.28449 
1839 11 3 -2.69807 -11.1497 0.639688 
4619 32 2 -3.59559 -10.8988 1.82019 
4610 32 3 -1.21189 -11.6092 1.64918 
5219 36 3 -9.53366 -10.2846 0.966141 
5221 36 3 -9.34482 -8.71393 1.0106 
436 2 3 -7.12667 -8.74863 1.34015 
5205 36 2 -7.80812 -8.88996 0.312147 
5204 36 2 -7.87986 -9.67741 1.44924 
451 2 5 -7.05629 -9.47318 1.69342 
5202 36 3 -5.75188 -9.43596 1.7823 